<?xml version="1.0"?>
<VTKFile type="UnstructuredGrid" version="0.1" byte_order="LittleEndian">
  <UnstructuredGrid>
    <Piece NumberOfCells="256" NumberOfPoints="400">
      <PointData Vectors="Displacement">
        <DataArray type="Float32" Name="Displacement" NumberOfComponents="3" format="ascii">
          0 0 0 0 0 0 0 0 0 0 0 0
          0 0 0 -0.096163 9.39431e-05 0.539965 -0.0962039 9.38662e-05 0.540074 -0.0962448 9.37849e-05 0.540184
          -0.0962857 9.36992e-05 0.540292 -0.0963265 9.36092e-05 0.540401 -0.172873 0.000382258 1.01462 -0.172935 0.00038213 1.01478
          -0.172997 0.000381995 1.01493 -0.173059 0.000381855 1.01509 -0.173121 0.000381709 1.01525 -0.230131 0.000864945 1.42397
          -0.230194 0.00086479 1.42411 -0.230257 0.000864631 1.42425 -0.230321 0.000864468 1.42439 -0.230384 0.0008643 1.42454
          -0.267935 0.001542 1.76801 -0.26798 0.00154185 1.76807 -0.268025 0.00154169 1.76814 -0.26807 0.00154154 1.7682
          -0.268116 0.00154138 1.76827 0 0 0 0 0 0 0 0 0
          0 0 0 0 0 0 -0.0963265 9.36092e-05 0.540401 -0.0963673 9.35183e-05 0.540509
          -0.0964079 9.34297e-05 0.540617 -0.0964485 9.33436e-05 0.540725 -0.096489 9.326e-05 0.540833 -0.173121 0.000381709 1.01525
          -0.173183 0.000381562 1.0154 -0.173245 0.000381418 1.01556 -0.173307 0.000381278 1.01571 -0.173368 0.00038114 1.01587
          -0.230384 0.0008643 1.42454 -0.230448 0.000864132 1.42468 -0.230511 0.000863966 1.42482 -0.230574 0.000863802 1.42496
          -0.230637 0.000863641 1.4251 -0.268116 0.00154138 1.76827 -0.268161 0.00154123 1.76834 -0.268207 0.00154107 1.76841
          -0.268252 0.00154092 1.76847 -0.268296 0.00154076 1.76854 0 0 0 0 0 0
          0 0 0 0 0 0 0 0 0 -0.096489 9.326e-05 0.540833
          -0.0965294 9.3178e-05 0.54094 -0.0965697 9.30971e-05 0.541046 -0.0966098 9.30172e-05 0.541152 -0.0966497 9.29382e-05 0.541258
          -0.173368 0.00038114 1.01587 -0.173429 0.000381005 1.01602 -0.17349 0.000380872 1.01617 -0.173551 0.00038074 1.01632
          -0.173612 0.00038061 1.01648 -0.230637 0.000863641 1.4251 -0.2307 0.000863482 1.42524 -0.230762 0.000863325 1.42538
          -0.230825 0.00086317 1.42552 -0.230887 0.000863016 1.42565 -0.268296 0.00154076 1.76854 -0.268341 0.00154061 1.7686
          -0.268385 0.00154046 1.76866 -0.26843 0.0015403 1.76873 -0.268474 0.00154016 1.76879 0 0 0
          0 0 0 0 0 0 0 0 0 0 0 0
          -0.0966497 9.29382e-05 0.541258 -0.0966893 9.28595e-05 0.541362 -0.0967283 9.27803e-05 0.541464 -0.0967667 9.27005e-05 0.541563
          -0.0968045 9.26201e-05 0.541659 -0.173612 0.00038061 1.01648 -0.173672 0.000380481 1.01662 -0.173731 0.000380353 1.01677
          -0.17379 0.000380225 1.01691 -0.173848 0.000380099 1.01706 -0.230887 0.000863016 1.42565 -0.230948 0.000862865 1.42579
          -0.23101 0.000862718 1.42592 -0.231071 0.000862575 1.42606 -0.231131 0.000862435 1.42619 -0.268474 0.00154016 1.76879
          -0.268518 0.00154001 1.76885 -0.268563 0.00153987 1.76892 -0.268608 0.00153975 1.76899 -0.268653 0.00153963 1.76906
          -0.267935 0.001542 1.76801 -0.26798 0.00154185 1.76807 -0.268025 0.00154169 1.76814 -0.26807 0.00154154 1.7682
          -0.268116 0.00154138 1.76827 -0.291964 0.00223006 2.0405 -0.291984 0.00222991 2.04046 -0.292006 0.00222977 2.04043
          -0.292027 0.00222963 2.0404 -0.292049 0.00222949 2.04038 -0.307893 0.00274574 2.23519 -0.307899 0.00274559 2.23508
          -0.307905 0.00274544 2.23497 -0.307912 0.0027453 2.23487 -0.307919 0.00274517 2.23477 -0.315723 0.00308905 2.35209
          -0.315723 0.00308887 2.35192 -0.315724 0.00308871 2.35176 -0.315724 0.00308856 2.35161 -0.315725 0.00308842 2.35146
          -0.315453 0.00325998 2.39119 -0.315457 0.00325977 2.391 -0.315461 0.00325958 2.3908 -0.315464 0.0032594 2.39062
          -0.315467 0.00325923 2.39044 -0.268116 0.00154138 1.76827 -0.268161 0.00154123 1.76834 -0.268207 0.00154107 1.76841
          -0.268252 0.00154092 1.76847 -0.268296 0.00154076 1.76854 -0.292049 0.00222949 2.04038 -0.292071 0.00222936 2.04035
          -0.292093 0.00222922 2.04032 -0.292115 0.00222909 2.04029 -0.292136 0.00222895 2.04026 -0.307919 0.00274517 2.23477
          -0.307926 0.00274504 2.23467 -0.307933 0.00274491 2.23457 -0.30794 0.00274477 2.23447 -0.307947 0.00274463 2.23436
          -0.315725 0.00308842 2.35146 -0.315726 0.00308828 2.35131 -0.315727 0.00308813 2.35115 -0.315728 0.00308798 2.351
          -0.315729 0.00308782 2.35084 -0.315467 0.00325923 2.39044 -0.315471 0.00325907 2.39025 -0.315474 0.00325889 2.39007
          -0.315478 0.00325871 2.38988 -0.315482 0.00325852 2.38969 -0.268296 0.00154076 1.76854 -0.268341 0.00154061 1.7686
          -0.268385 0.00154046 1.76866 -0.26843 0.0015403 1.76873 -0.268474 0.00154016 1.76879 -0.292136 0.00222895 2.04026
          -0.292157 0.0022288 2.04023 -0.292178 0.00222866 2.0402 -0.292199 0.00222852 2.04017 -0.29222 0.00222838 2.04013
          -0.307947 0.00274463 2.23436 -0.307953 0.00274449 2.23425 -0.30796 0.00274434 2.23415 -0.307966 0.0027442 2.23404
          -0.307973 0.00274406 2.23394 -0.315729 0.00308782 2.35084 -0.315729 0.00308766 2.35068 -0.31573 0.0030875 2.35052
          -0.315731 0.00308734 2.35036 -0.315731 0.00308718 2.3502 -0.315482 0.00325852 2.38969 -0.315485 0.00325832 2.38949
          -0.315489 0.00325813 2.3893 -0.315493 0.00325794 2.38911 -0.315496 0.00325775 2.38892 -0.268474 0.00154016 1.76879
          -0.268518 0.00154001 1.76885 -0.268563 0.00153987 1.76892 -0.268608 0.00153975 1.76899 -0.268653 0.00153963 1.76906
          -0.29222 0.00222838 2.04013 -0.292242 0.00222825 2.0401 -0.292265 0.00222814 2.04008 -0.292288 0.00222804 2.04007
          -0.292313 0.00222795 2.04006 -0.307973 0.00274406 2.23394 -0.30798 0.00274393 2.23384 -0.307988 0.00274382 2.23375
          -0.307998 0.00274373 2.23367 -0.308009 0.00274365 2.2336 -0.315731 0.00308718 2.3502 -0.315732 0.00308704 2.35005
          -0.315734 0.00308692 2.34991 -0.315737 0.00308682 2.34979 -0.315741 0.00308675 2.34968 -0.315496 0.00325775 2.38892
          -0.315499 0.00325758 2.38874 -0.315502 0.00325744 2.38858 -0.315506 0.00325732 2.38842 -0.315509 0.00325723 2.38829
          -0.315453 0.00325998 2.39119 -0.315457 0.00325977 2.391 -0.315461 0.00325958 2.3908 -0.315464 0.0032594 2.39062
          -0.315467 0.00325923 2.39044 -0.315123 0.00324574 2.35246 -0.315132 0.00324551 2.35226 -0.315139 0.00324529 2.35206
          -0.315147 0.00324509 2.35187 -0.315154 0.0032449 2.35168 -0.322772 0.00303353 2.23585 -0.322777 0.00303331 2.23567
          -0.322782 0.0030331 2.23549 -0.322787 0.0030329 2.23532 -0.322792 0.00303271 2.23515 -0.338398 0.00262334 2.04136
          -0.338394 0.00262316 2.04123 -0.33839 0.00262299 2.04111 -0.338386 0.00262282 2.04099 -0.338381 0.00262266 2.04086
          -0.362002 0.00201519 1.76899 -0.361981 0.00201508 1.76895 -0.361961 0.00201497 1.7689 -0.361942 0.00201487 1.76886
          -0.361923 0.00201476 1.76881 -0.315467 0.00325923 2.39044 -0.315471 0.00325907 2.39025 -0.315474 0.00325889 2.39007
          -0.315478 0.00325871 2.38988 -0.315482 0.00325852 2.38969 -0.315154 0.0032449 2.35168 -0.315161 0.00324471 2.35149
          -0.315168 0.00324451 2.3513 -0.315175 0.0032443 2.3511 -0.315183 0.00324409 2.3509 -0.322792 0.00303271 2.23515
          -0.322796 0.00303252 2.23498 -0.322801 0.00303233 2.23481 -0.322806 0.00303212 2.23464 -0.322811 0.00303191 2.23446
          -0.338381 0.00262266 2.04086 -0.338377 0.00262251 2.04074 -0.338373 0.00262234 2.04062 -0.338369 0.00262217 2.04049
          -0.338365 0.00262199 2.04037 -0.361923 0.00201476 1.76881 -0.361904 0.00201465 1.76877 -0.361885 0.00201454 1.76872
          -0.361865 0.00201443 1.76867 -0.361846 0.00201431 1.76862 -0.315482 0.00325852 2.38969 -0.315485 0.00325832 2.38949
          -0.315489 0.00325813 2.3893 -0.315493 0.00325794 2.38911 -0.315496 0.00325775 2.38892 -0.315183 0.00324409 2.3509
          -0.315191 0.00324387 2.3507 -0.315199 0.00324365 2.3505 -0.315207 0.00324344 2.3503 -0.315214 0.00324323 2.3501
          -0.322811 0.00303191 2.23446 -0.322817 0.00303169 2.23428 -0.322822 0.00303148 2.2341 -0.322827 0.00303127 2.23392
          -0.322832 0.00303107 2.23375 -0.338365 0.00262199 2.04037 -0.338361 0.0026218 2.04024 -0.338358 0.00262163 2.04011
          -0.338354 0.00262145 2.03998 -0.338351 0.00262128 2.03986 -0.361846 0.00201431 1.76862 -0.361826 0.00201419 1.76857
          -0.361806 0.00201408 1.76853 -0.361788 0.00201397 1.76848 -0.36177 0.00201386 1.76843 -0.315496 0.00325775 2.38892
          -0.315499 0.00325758 2.38874 -0.315502 0.00325744 2.38858 -0.315506 0.00325732 2.38842 -0.315509 0.00325723 2.38829
          -0.315214 0.00324323 2.3501 -0.31522 0.00324304 2.34992 -0.315226 0.00324287 2.34974 -0.315231 0.00324274 2.34959
          -0.315235 0.00324263 2.34944 -0.322832 0.00303107 2.23375 -0.322836 0.00303089 2.23358 -0.322839 0.00303072 2.23343
          -0.322841 0.00303059 2.23329 -0.322841 0.00303048 2.23316 -0.338351 0.00262128 2.03986 -0.338347 0.00262112 2.03974
          -0.338341 0.00262099 2.03962 -0.338334 0.00262087 2.03952 -0.338325 0.00262078 2.03943 -0.36177 0.00201386 1.76843
          -0.361752 0.00201376 1.76838 -0.361732 0.00201367 1.76833 -0.361711 0.00201359 1.7683 -0.361689 0.00201353 1.76826
          -0.362002 0.00201519 1.76899 -0.361981 0.00201508 1.76895 -0.361961 0.00201497 1.7689 -0.361942 0.00201487 1.76886
          -0.361923 0.00201476 1.76881 -0.399412 0.00135888 1.42495 -0.399377 0.00135885 1.42498 -0.399343 0.00135881 1.42501
          -0.39931 0.00135876 1.42504 -0.399278 0.00135871 1.42506 -0.456458 0.00080425 1.01544 -0.456419 0.000804257 1.0155
          -0.456382 0.000804257 1.01556 -0.456345 0.000804251 1.01562 -0.456309 0.000804238 1.01567 -0.533137 0.000351289 0.540457
          -0.533107 0.000351308 0.540509 -0.533077 0.000351321 0.540559 -0.533046 0.00035133 0.540607 -0.533015 0.000351334 0.540653
          -0.629452 0 0 -0.629441 0 0 -0.629428 0 0 -0.629413 0 0
          -0.629396 0 0 -0.361923 0.00201476 1.76881 -0.361904 0.00201465 1.76877 -0.361885 0.00201454 1.76872
          -0.361865 0.00201443 1.76867 -0.361846 0.00201431 1.76862 -0.399278 0.00135871 1.42506 -0.399246 0.00135866 1.42508
          -0.399214 0.00135861 1.42511 -0.39918 0.00135856 1.42513 -0.399146 0.00135851 1.42516 -0.456309 0.000804238 1.01567
          -0.456273 0.000804224 1.01573 -0.456236 0.00080421 1.01578 -0.456199 0.000804198 1.01584 -0.456162 0.000804188 1.0159
          -0.533015 0.000351334 0.540653 -0.532983 0.000351336 0.540699 -0.532953 0.00035134 0.540746 -0.532923 0.000351345 0.540795
          -0.532893 0.000351352 0.540845 -0.629396 0 0 -0.629379 0 0 -0.629363 0 0
          -0.62935 0 0 -0.629338 0 0 -0.361846 0.00201431 1.76862 -0.361826 0.00201419 1.76857
          -0.361806 0.00201408 1.76853 -0.361788 0.00201397 1.76848 -0.36177 0.00201386 1.76843 -0.399146 0.00135851 1.42516
          -0.399112 0.00135846 1.42518 -0.39908 0.00135841 1.42521 -0.399048 0.00135836 1.42523 -0.399016 0.00135831 1.42525
          -0.456162 0.000804188 1.0159 -0.456125 0.000804178 1.01596 -0.456088 0.000804169 1.01601 -0.456052 0.000804161 1.01607
          -0.456017 0.000804153 1.01612 -0.532893 0.000351352 0.540845 -0.532863 0.000351359 0.540895 -0.532833 0.000351367 0.540944
          -0.532803 0.000351375 0.540991 -0.532772 0.000351382 0.541037 -0.629338 0 0 -0.629327 0 0
          -0.629313 0 0 -0.629298 0 0 -0.62928 0 0 -0.36177 0.00201386 1.76843
          -0.361752 0.00201376 1.76838 -0.361732 0.00201367 1.76833 -0.361711 0.00201359 1.7683 -0.361689 0.00201353 1.76826
          -0.399016 0.00135831 1.42525 -0.398986 0.00135827 1.42527 -0.398954 0.00135823 1.42529 -0.398921 0.00135819 1.42531
          -0.398888 0.00135816 1.42533 -0.456017 0.000804153 1.01612 -0.455982 0.000804145 1.01617 -0.455947 0.000804137 1.01622
          -0.455913 0.000804128 1.01626 -0.455878 0.000804119 1.01631 -0.532772 0.000351382 0.541037 -0.532741 0.000351389 0.54108
          -0.532712 0.000351394 0.541122 -0.532685 0.000351397 0.541161 -0.532658 0.000351398 0.541199 -0.62928 0 0
          -0.629263 0 0 -0.629249 0 0 -0.629238 0 0 -0.62923 0 0
        </DataArray>
        <DataArray type="Float32" Name="Displacement" NumberOfComponents="3" format="ascii">
          0 0 0 0 0 0 0 0 0 0 0 0
          0 0 0 -0.096163 9.39431e-05 0.539965 -0.0962039 9.38662e-05 0.540074 -0.0962448 9.37849e-05 0.540184
          -0.0962857 9.36992e-05 0.540292 -0.0963265 9.36092e-05 0.540401 -0.172873 0.000382258 1.01462 -0.172935 0.00038213 1.01478
          -0.172997 0.000381995 1.01493 -0.173059 0.000381855 1.01509 -0.173121 0.000381709 1.01525 -0.230131 0.000864945 1.42397
          -0.230194 0.00086479 1.42411 -0.230257 0.000864631 1.42425 -0.230321 0.000864468 1.42439 -0.230384 0.0008643 1.42454
          -0.267935 0.001542 1.76801 -0.26798 0.00154185 1.76807 -0.268025 0.00154169 1.76814 -0.26807 0.00154154 1.7682
          -0.268116 0.00154138 1.76827 0 0 0 0 0 0 0 0 0
          0 0 0 0 0 0 -0.0963265 9.36092e-05 0.540401 -0.0963673 9.35183e-05 0.540509
          -0.0964079 9.34297e-05 0.540617 -0.0964485 9.33436e-05 0.540725 -0.096489 9.326e-05 0.540833 -0.173121 0.000381709 1.01525
          -0.173183 0.000381562 1.0154 -0.173245 0.000381418 1.01556 -0.173307 0.000381278 1.01571 -0.173368 0.00038114 1.01587
          -0.230384 0.0008643 1.42454 -0.230448 0.000864132 1.42468 -0.230511 0.000863966 1.42482 -0.230574 0.000863802 1.42496
          -0.230637 0.000863641 1.4251 -0.268116 0.00154138 1.76827 -0.268161 0.00154123 1.76834 -0.268207 0.00154107 1.76841
          -0.268252 0.00154092 1.76847 -0.268296 0.00154076 1.76854 0 0 0 0 0 0
          0 0 0 0 0 0 0 0 0 -0.096489 9.326e-05 0.540833
          -0.0965294 9.3178e-05 0.54094 -0.0965697 9.30971e-05 0.541046 -0.0966098 9.30172e-05 0.541152 -0.0966497 9.29382e-05 0.541258
          -0.173368 0.00038114 1.01587 -0.173429 0.000381005 1.01602 -0.17349 0.000380872 1.01617 -0.173551 0.00038074 1.01632
          -0.173612 0.00038061 1.01648 -0.230637 0.000863641 1.4251 -0.2307 0.000863482 1.42524 -0.230762 0.000863325 1.42538
          -0.230825 0.00086317 1.42552 -0.230887 0.000863016 1.42565 -0.268296 0.00154076 1.76854 -0.268341 0.00154061 1.7686
          -0.268385 0.00154046 1.76866 -0.26843 0.0015403 1.76873 -0.268474 0.00154016 1.76879 0 0 0
          0 0 0 0 0 0 0 0 0 0 0 0
          -0.0966497 9.29382e-05 0.541258 -0.0966893 9.28595e-05 0.541362 -0.0967283 9.27803e-05 0.541464 -0.0967667 9.27005e-05 0.541563
          -0.0968045 9.26201e-05 0.541659 -0.173612 0.00038061 1.01648 -0.173672 0.000380481 1.01662 -0.173731 0.000380353 1.01677
          -0.17379 0.000380225 1.01691 -0.173848 0.000380099 1.01706 -0.230887 0.000863016 1.42565 -0.230948 0.000862865 1.42579
          -0.23101 0.000862718 1.42592 -0.231071 0.000862575 1.42606 -0.231131 0.000862435 1.42619 -0.268474 0.00154016 1.76879
          -0.268518 0.00154001 1.76885 -0.268563 0.00153987 1.76892 -0.268608 0.00153975 1.76899 -0.268653 0.00153963 1.76906
          -0.267935 0.001542 1.76801 -0.26798 0.00154185 1.76807 -0.268025 0.00154169 1.76814 -0.26807 0.00154154 1.7682
          -0.268116 0.00154138 1.76827 -0.291964 0.00223006 2.0405 -0.291984 0.00222991 2.04046 -0.292006 0.00222977 2.04043
          -0.292027 0.00222963 2.0404 -0.292049 0.00222949 2.04038 -0.307893 0.00274574 2.23519 -0.307899 0.00274559 2.23508
          -0.307905 0.00274544 2.23497 -0.307912 0.0027453 2.23487 -0.307919 0.00274517 2.23477 -0.315723 0.00308905 2.35209
          -0.315723 0.00308887 2.35192 -0.315724 0.00308871 2.35176 -0.315724 0.00308856 2.35161 -0.315725 0.00308842 2.35146
          -0.315453 0.00325998 2.39119 -0.315457 0.00325977 2.391 -0.315461 0.00325958 2.3908 -0.315464 0.0032594 2.39062
          -0.315467 0.00325923 2.39044 -0.268116 0.00154138 1.76827 -0.268161 0.00154123 1.76834 -0.268207 0.00154107 1.76841
          -0.268252 0.00154092 1.76847 -0.268296 0.00154076 1.76854 -0.292049 0.00222949 2.04038 -0.292071 0.00222936 2.04035
          -0.292093 0.00222922 2.04032 -0.292115 0.00222909 2.04029 -0.292136 0.00222895 2.04026 -0.307919 0.00274517 2.23477
          -0.307926 0.00274504 2.23467 -0.307933 0.00274491 2.23457 -0.30794 0.00274477 2.23447 -0.307947 0.00274463 2.23436
          -0.315725 0.00308842 2.35146 -0.315726 0.00308828 2.35131 -0.315727 0.00308813 2.35115 -0.315728 0.00308798 2.351
          -0.315729 0.00308782 2.35084 -0.315467 0.00325923 2.39044 -0.315471 0.00325907 2.39025 -0.315474 0.00325889 2.39007
          -0.315478 0.00325871 2.38988 -0.315482 0.00325852 2.38969 -0.268296 0.00154076 1.76854 -0.268341 0.00154061 1.7686
          -0.268385 0.00154046 1.76866 -0.26843 0.0015403 1.76873 -0.268474 0.00154016 1.76879 -0.292136 0.00222895 2.04026
          -0.292157 0.0022288 2.04023 -0.292178 0.00222866 2.0402 -0.292199 0.00222852 2.04017 -0.29222 0.00222838 2.04013
          -0.307947 0.00274463 2.23436 -0.307953 0.00274449 2.23425 -0.30796 0.00274434 2.23415 -0.307966 0.0027442 2.23404
          -0.307973 0.00274406 2.23394 -0.315729 0.00308782 2.35084 -0.315729 0.00308766 2.35068 -0.31573 0.0030875 2.35052
          -0.315731 0.00308734 2.35036 -0.315731 0.00308718 2.3502 -0.315482 0.00325852 2.38969 -0.315485 0.00325832 2.38949
          -0.315489 0.00325813 2.3893 -0.315493 0.00325794 2.38911 -0.315496 0.00325775 2.38892 -0.268474 0.00154016 1.76879
          -0.268518 0.00154001 1.76885 -0.268563 0.00153987 1.76892 -0.268608 0.00153975 1.76899 -0.268653 0.00153963 1.76906
          -0.29222 0.00222838 2.04013 -0.292242 0.00222825 2.0401 -0.292265 0.00222814 2.04008 -0.292288 0.00222804 2.04007
          -0.292313 0.00222795 2.04006 -0.307973 0.00274406 2.23394 -0.30798 0.00274393 2.23384 -0.307988 0.00274382 2.23375
          -0.307998 0.00274373 2.23367 -0.308009 0.00274365 2.2336 -0.315731 0.00308718 2.3502 -0.315732 0.00308704 2.35005
          -0.315734 0.00308692 2.34991 -0.315737 0.00308682 2.34979 -0.315741 0.00308675 2.34968 -0.315496 0.00325775 2.38892
          -0.315499 0.00325758 2.38874 -0.315502 0.00325744 2.38858 -0.315506 0.00325732 2.38842 -0.315509 0.00325723 2.38829
          -0.315453 0.00325998 2.39119 -0.315457 0.00325977 2.391 -0.315461 0.00325958 2.3908 -0.315464 0.0032594 2.39062
          -0.315467 0.00325923 2.39044 -0.315123 0.00324574 2.35246 -0.315132 0.00324551 2.35226 -0.315139 0.00324529 2.35206
          -0.315147 0.00324509 2.35187 -0.315154 0.0032449 2.35168 -0.322772 0.00303353 2.23585 -0.322777 0.00303331 2.23567
          -0.322782 0.0030331 2.23549 -0.322787 0.0030329 2.23532 -0.322792 0.00303271 2.23515 -0.338398 0.00262334 2.04136
          -0.338394 0.00262316 2.04123 -0.33839 0.00262299 2.04111 -0.338386 0.00262282 2.04099 -0.338381 0.00262266 2.04086
          -0.362002 0.00201519 1.76899 -0.361981 0.00201508 1.76895 -0.361961 0.00201497 1.7689 -0.361942 0.00201487 1.76886
          -0.361923 0.00201476 1.76881 -0.315467 0.00325923 2.39044 -0.315471 0.00325907 2.39025 -0.315474 0.00325889 2.39007
          -0.315478 0.00325871 2.38988 -0.315482 0.00325852 2.38969 -0.315154 0.0032449 2.35168 -0.315161 0.00324471 2.35149
          -0.315168 0.00324451 2.3513 -0.315175 0.0032443 2.3511 -0.315183 0.00324409 2.3509 -0.322792 0.00303271 2.23515
          -0.322796 0.00303252 2.23498 -0.322801 0.00303233 2.23481 -0.322806 0.00303212 2.23464 -0.322811 0.00303191 2.23446
          -0.338381 0.00262266 2.04086 -0.338377 0.00262251 2.04074 -0.338373 0.00262234 2.04062 -0.338369 0.00262217 2.04049
          -0.338365 0.00262199 2.04037 -0.361923 0.00201476 1.76881 -0.361904 0.00201465 1.76877 -0.361885 0.00201454 1.76872
          -0.361865 0.00201443 1.76867 -0.361846 0.00201431 1.76862 -0.315482 0.00325852 2.38969 -0.315485 0.00325832 2.38949
          -0.315489 0.00325813 2.3893 -0.315493 0.00325794 2.38911 -0.315496 0.00325775 2.38892 -0.315183 0.00324409 2.3509
          -0.315191 0.00324387 2.3507 -0.315199 0.00324365 2.3505 -0.315207 0.00324344 2.3503 -0.315214 0.00324323 2.3501
          -0.322811 0.00303191 2.23446 -0.322817 0.00303169 2.23428 -0.322822 0.00303148 2.2341 -0.322827 0.00303127 2.23392
          -0.322832 0.00303107 2.23375 -0.338365 0.00262199 2.04037 -0.338361 0.0026218 2.04024 -0.338358 0.00262163 2.04011
          -0.338354 0.00262145 2.03998 -0.338351 0.00262128 2.03986 -0.361846 0.00201431 1.76862 -0.361826 0.00201419 1.76857
          -0.361806 0.00201408 1.76853 -0.361788 0.00201397 1.76848 -0.36177 0.00201386 1.76843 -0.315496 0.00325775 2.38892
          -0.315499 0.00325758 2.38874 -0.315502 0.00325744 2.38858 -0.315506 0.00325732 2.38842 -0.315509 0.00325723 2.38829
          -0.315214 0.00324323 2.3501 -0.31522 0.00324304 2.34992 -0.315226 0.00324287 2.34974 -0.315231 0.00324274 2.34959
          -0.315235 0.00324263 2.34944 -0.322832 0.00303107 2.23375 -0.322836 0.00303089 2.23358 -0.322839 0.00303072 2.23343
          -0.322841 0.00303059 2.23329 -0.322841 0.00303048 2.23316 -0.338351 0.00262128 2.03986 -0.338347 0.00262112 2.03974
          -0.338341 0.00262099 2.03962 -0.338334 0.00262087 2.03952 -0.338325 0.00262078 2.03943 -0.36177 0.00201386 1.76843
          -0.361752 0.00201376 1.76838 -0.361732 0.00201367 1.76833 -0.361711 0.00201359 1.7683 -0.361689 0.00201353 1.76826
          -0.362002 0.00201519 1.76899 -0.361981 0.00201508 1.76895 -0.361961 0.00201497 1.7689 -0.361942 0.00201487 1.76886
          -0.361923 0.00201476 1.76881 -0.399412 0.00135888 1.42495 -0.399377 0.00135885 1.42498 -0.399343 0.00135881 1.42501
          -0.39931 0.00135876 1.42504 -0.399278 0.00135871 1.42506 -0.456458 0.00080425 1.01544 -0.456419 0.000804257 1.0155
          -0.456382 0.000804257 1.01556 -0.456345 0.000804251 1.01562 -0.456309 0.000804238 1.01567 -0.533137 0.000351289 0.540457
          -0.533107 0.000351308 0.540509 -0.533077 0.000351321 0.540559 -0.533046 0.00035133 0.540607 -0.533015 0.000351334 0.540653
          -0.629452 0 0 -0.629441 0 0 -0.629428 0 0 -0.629413 0 0
          -0.629396 0 0 -0.361923 0.00201476 1.76881 -0.361904 0.00201465 1.76877 -0.361885 0.00201454 1.76872
          -0.361865 0.00201443 1.76867 -0.361846 0.00201431 1.76862 -0.399278 0.00135871 1.42506 -0.399246 0.00135866 1.42508
          -0.399214 0.00135861 1.42511 -0.39918 0.00135856 1.42513 -0.399146 0.00135851 1.42516 -0.456309 0.000804238 1.01567
          -0.456273 0.000804224 1.01573 -0.456236 0.00080421 1.01578 -0.456199 0.000804198 1.01584 -0.456162 0.000804188 1.0159
          -0.533015 0.000351334 0.540653 -0.532983 0.000351336 0.540699 -0.532953 0.00035134 0.540746 -0.532923 0.000351345 0.540795
          -0.532893 0.000351352 0.540845 -0.629396 0 0 -0.629379 0 0 -0.629363 0 0
          -0.62935 0 0 -0.629338 0 0 -0.361846 0.00201431 1.76862 -0.361826 0.00201419 1.76857
          -0.361806 0.00201408 1.76853 -0.361788 0.00201397 1.76848 -0.36177 0.00201386 1.76843 -0.399146 0.00135851 1.42516
          -0.399112 0.00135846 1.42518 -0.39908 0.00135841 1.42521 -0.399048 0.00135836 1.42523 -0.399016 0.00135831 1.42525
          -0.456162 0.000804188 1.0159 -0.456125 0.000804178 1.01596 -0.456088 0.000804169 1.01601 -0.456052 0.000804161 1.01607
          -0.456017 0.000804153 1.01612 -0.532893 0.000351352 0.540845 -0.532863 0.000351359 0.540895 -0.532833 0.000351367 0.540944
          -0.532803 0.000351375 0.540991 -0.532772 0.000351382 0.541037 -0.629338 0 0 -0.629327 0 0
          -0.629313 0 0 -0.629298 0 0 -0.62928 0 0 -0.36177 0.00201386 1.76843
          -0.361752 0.00201376 1.76838 -0.361732 0.00201367 1.76833 -0.361711 0.00201359 1.7683 -0.361689 0.00201353 1.76826
          -0.399016 0.00135831 1.42525 -0.398986 0.00135827 1.42527 -0.398954 0.00135823 1.42529 -0.398921 0.00135819 1.42531
          -0.398888 0.00135816 1.42533 -0.456017 0.000804153 1.01612 -0.455982 0.000804145 1.01617 -0.455947 0.000804137 1.01622
          -0.455913 0.000804128 1.01626 -0.455878 0.000804119 1.01631 -0.532772 0.000351382 0.541037 -0.532741 0.000351389 0.54108
          -0.532712 0.000351394 0.541122 -0.532685 0.000351397 0.541161 -0.532658 0.000351398 0.541199 -0.62928 0 0
          -0.629263 0 0 -0.629249 0 0 -0.629238 0 0 -0.62923 0 0
        </DataArray>
      </PointData>
      <Points>
        <DataArray type="Float32" Name="Coordinates" NumberOfComponents="3" format="ascii">
          0 0 0 0 0.125 0 0 0.25 0 0 0.375 0
          0 0.5 0 0.625 0 0 0.625 0.125 0 0.625 0.25 0
          0.625 0.375 0 0.625 0.5 0 1.25 0 0 1.25 0.125 0
          1.25 0.25 0 1.25 0.375 0 1.25 0.5 0 1.875 0 0
          1.875 0.125 0 1.875 0.25 0 1.875 0.375 0 1.875 0.5 0
          2.5 0 0 2.5 0.125 0 2.5 0.25 0 2.5 0.375 0
          2.5 0.5 0 0 0.5 0 0 0.625 0 0 0.75 0
          0 0.875 0 0 1 0 0.625 0.5 0 0.625 0.625 0
          0.625 0.75 0 0.625 0.875 0 0.625 1 0 1.25 0.5 0
          1.25 0.625 0 1.25 0.75 0 1.25 0.875 0 1.25 1 0
          1.875 0.5 0 1.875 0.625 0 1.875 0.75 0 1.875 0.875 0
          1.875 1 0 2.5 0.5 0 2.5 0.625 0 2.5 0.75 0
          2.5 0.875 0 2.5 1 0 0 1 0 0 1.125 0
          0 1.25 0 0 1.375 0 0 1.5 0 0.625 1 0
          0.625 1.125 0 0.625 1.25 0 0.625 1.375 0 0.625 1.5 0
          1.25 1 0 1.25 1.125 0 1.25 1.25 0 1.25 1.375 0
          1.25 1.5 0 1.875 1 0 1.875 1.125 0 1.875 1.25 0
          1.875 1.375 0 1.875 1.5 0 2.5 1 0 2.5 1.125 0
          2.5 1.25 0 2.5 1.375 0 2.5 1.5 0 0 1.5 0
          0 1.625 0 0 1.75 0 0 1.875 0 0 2 0
          0.625 1.5 0 0.625 1.625 0 0.625 1.75 0 0.625 1.875 0
          0.625 2 0 1.25 1.5 0 1.25 1.625 0 1.25 1.75 0
          1.25 1.875 0 1.25 2 0 1.875 1.5 0 1.875 1.625 0
          1.875 1.75 0 1.875 1.875 0 1.875 2 0 2.5 1.5 0
          2.5 1.625 0 2.5 1.75 0 2.5 1.875 0 2.5 2 0
          2.5 0 0 2.5 0.125 0 2.5 0.25 0 2.5 0.375 0
          2.5 0.5 0 3.125 0 0 3.125 0.125 0 3.125 0.25 0
          3.125 0.375 0 3.125 0.5 0 3.75 0 0 3.75 0.125 0
          3.75 0.25 0 3.75 0.375 0 3.75 0.5 0 4.375 0 0
          4.375 0.125 0 4.375 0.25 0 4.375 0.375 0 4.375 0.5 0
          5 0 0 5 0.125 0 5 0.25 0 5 0.375 0
          5 0.5 0 2.5 0.5 0 2.5 0.625 0 2.5 0.75 0
          2.5 0.875 0 2.5 1 0 3.125 0.5 0 3.125 0.625 0
          3.125 0.75 0 3.125 0.875 0 3.125 1 0 3.75 0.5 0
          3.75 0.625 0 3.75 0.75 0 3.75 0.875 0 3.75 1 0
          4.375 0.5 0 4.375 0.625 0 4.375 0.75 0 4.375 0.875 0
          4.375 1 0 5 0.5 0 5 0.625 0 5 0.75 0
          5 0.875 0 5 1 0 2.5 1 0 2.5 1.125 0
          2.5 1.25 0 2.5 1.375 0 2.5 1.5 0 3.125 1 0
          3.125 1.125 0 3.125 1.25 0 3.125 1.375 0 3.125 1.5 0
          3.75 1 0 3.75 1.125 0 3.75 1.25 0 3.75 1.375 0
          3.75 1.5 0 4.375 1 0 4.375 1.125 0 4.375 1.25 0
          4.375 1.375 0 4.375 1.5 0 5 1 0 5 1.125 0
          5 1.25 0 5 1.375 0 5 1.5 0 2.5 1.5 0
          2.5 1.625 0 2.5 1.75 0 2.5 1.875 0 2.5 2 0
          3.125 1.5 0 3.125 1.625 0 3.125 1.75 0 3.125 1.875 0
          3.125 2 0 3.75 1.5 0 3.75 1.625 0 3.75 1.75 0
          3.75 1.875 0 3.75 2 0 4.375 1.5 0 4.375 1.625 0
          4.375 1.75 0 4.375 1.875 0 4.375 2 0 5 1.5 0
          5 1.625 0 5 1.75 0 5 1.875 0 5 2 0
          5 0 0 5 0.125 0 5 0.25 0 5 0.375 0
          5 0.5 0 5.625 0 0 5.625 0.125 0 5.625 0.25 0
          5.625 0.375 0 5.625 0.5 0 6.25 0 0 6.25 0.125 0
          6.25 0.25 0 6.25 0.375 0 6.25 0.5 0 6.875 0 0
          6.875 0.125 0 6.875 0.25 0 6.875 0.375 0 6.875 0.5 0
          7.5 0 0 7.5 0.125 0 7.5 0.25 0 7.5 0.375 0
          7.5 0.5 0 5 0.5 0 5 0.625 0 5 0.75 0
          5 0.875 0 5 1 0 5.625 0.5 0 5.625 0.625 0
          5.625 0.75 0 5.625 0.875 0 5.625 1 0 6.25 0.5 0
          6.25 0.625 0 6.25 0.75 0 6.25 0.875 0 6.25 1 0
          6.875 0.5 0 6.875 0.625 0 6.875 0.75 0 6.875 0.875 0
          6.875 1 0 7.5 0.5 0 7.5 0.625 0 7.5 0.75 0
          7.5 0.875 0 7.5 1 0 5 1 0 5 1.125 0
          5 1.25 0 5 1.375 0 5 1.5 0 5.625 1 0
          5.625 1.125 0 5.625 1.25 0 5.625 1.375 0 5.625 1.5 0
          6.25 1 0 6.25 1.125 0 6.25 1.25 0 6.25 1.375 0
          6.25 1.5 0 6.875 1 0 6.875 1.125 0 6.875 1.25 0
          6.875 1.375 0 6.875 1.5 0 7.5 1 0 7.5 1.125 0
          7.5 1.25 0 7.5 1.375 0 7.5 1.5 0 5 1.5 0
          5 1.625 0 5 1.75 0 5 1.875 0 5 2 0
          5.625 1.5 0 5.625 1.625 0 5.625 1.75 0 5.625 1.875 0
          5.625 2 0 6.25 1.5 0 6.25 1.625 0 6.25 1.75 0
          6.25 1.875 0 6.25 2 0 6.875 1.5 0 6.875 1.625 0
          6.875 1.75 0 6.875 1.875 0 6.875 2 0 7.5 1.5 0
          7.5 1.625 0 7.5 1.75 0 7.5 1.875 0 7.5 2 0
          7.5 0 0 7.5 0.125 0 7.5 0.25 0 7.5 0.375 0
          7.5 0.5 0 8.125 0 0 8.125 0.125 0 8.125 0.25 0
          8.125 0.375 0 8.125 0.5 0 8.75 0 0 8.75 0.125 0
          8.75 0.25 0 8.75 0.375 0 8.75 0.5 0 9.375 0 0
          9.375 0.125 0 9.375 0.25 0 9.375 0.375 0 9.375 0.5 0
          10 0 0 10 0.125 0 10 0.25 0 10 0.375 0
          10 0.5 0 7.5 0.5 0 7.5 0.625 0 7.5 0.75 0
          7.5 0.875 0 7.5 1 0 8.125 0.5 0 8.125 0.625 0
          8.125 0.75 0 8.125 0.875 0 8.125 1 0 8.75 0.5 0
          8.75 0.625 0 8.75 0.75 0 8.75 0.875 0 8.75 1 0
          9.375 0.5 0 9.375 0.625 0 9.375 0.75 0 9.375 0.875 0
          9.375 1 0 10 0.5 0 10 0.625 0 10 0.75 0
          10 0.875 0 10 1 0 7.5 1 0 7.5 1.125 0
          7.5 1.25 0 7.5 1.375 0 7.5 1.5 0 8.125 1 0
          8.125 1.125 0 8.125 1.25 0 8.125 1.375 0 8.125 1.5 0
          8.75 1 0 8.75 1.125 0 8.75 1.25 0 8.75 1.375 0
          8.75 1.5 0 9.375 1 0 9.375 1.125 0 9.375 1.25 0
          9.375 1.375 0 9.375 1.5 0 10 1 0 10 1.125 0
          10 1.25 0 10 1.375 0 10 1.5 0 7.5 1.5 0
          7.5 1.625 0 7.5 1.75 0 7.5 1.875 0 7.5 2 0
          8.125 1.5 0 8.125 1.625 0 8.125 1.75 0 8.125 1.875 0
          8.125 2 0 8.75 1.5 0 8.75 1.625 0 8.75 1.75 0
          8.75 1.875 0 8.75 2 0 9.375 1.5 0 9.375 1.625 0
          9.375 1.75 0 9.375 1.875 0 9.375 2 0 10 1.5 0
          10 1.625 0 10 1.75 0 10 1.875 0 10 2 0
        </DataArray>
      </Points>
      <Cells>
        <DataArray type="Int32" Name="connectivity" NumberOfComponents="1" format="ascii">