<?xml version="1.0"?>
<VTKFile type="UnstructuredGrid" version="0.1" byte_order="LittleEndian">
  <UnstructuredGrid>
    <Piece NumberOfCells="256" NumberOfPoints="400">
      <PointData Vectors="Displacement">
        <DataArray type="Float32" Name="Displacement" NumberOfComponents="3" format="ascii">
          0 0 0 0 0 0 0 0 0 0 0 0
          0 0 0 0 0 0 0 0 0 0 0 0
          0 0 0 0 0 0 0 0 0 0 0 0
          0 0 0 0 0 0 0 0 0 0 0 0
          0 0 0 0 0 0 0 0 0 0 0 0
          0 0 0 0 0 0 0 0 0 0 0 0
          0 0 0 0 0 0 0 0 0 0 0 0
          0 0 0 0 0 0 0 0 0 0 0 0
          0 0 0 0 0 0 0 0 0 0 0 0
          0 0 0 0 0 0 0 0 0 0 0 0
          0 0 0 0 0 0 0 0 0 0 0 0
          0 0 0 0 0 0 0 0 0 0 0 0
          0 0 0 0 0 0 0 0 0 0 0 0
          0 0 0 0 0 0 0 0 0 0 0 0
          0 0 0 0 0 0 0 0 0 0 0 0
          0 0 0 0 0 0 0 0 0 0 0 0
          0 0 0 0 0 0 0 0 0 0 0 0
          0 0 0 0 0 0 0 0 0 0 0 0
          0 0 0 0 0 0 0 0 0 0 0 0
          0 0 0 0 0 0 0 0 0 0 0 0
          0 0 0 0 0 0 0 0 0 0 0 0
          0 0 0 0 0 0 0 0 0 0 0 0
          0 0 0 0 0 0 0 0 0 0 0 0
          0 0 0 0 0 0 0 0 0 0 0 0
          0 0 0 0 0 0 0 0 0 0 0 0
          0 0 0 0 0 0 0 0 0 0 0 0
          0 0 0 0 0 0 0 0 0 0 0 0
          0 0 0 0 0 0 0 0 0 0 0 0
          0 0 0 0 0 0 0 0 0 0 0 0
          0 0 0 0 0 0 0 0 0 0 0 0
          0 0 0 0 0 0 0 0 0 0 0 0
          0 0 0 0 0 0 0 0 0 0 0 0
          0 0 0 0 0 0 0 0 0 0 0 0
          0 0 0 0 0 0 0 0 0 0 0 0
          0 0 0 0 0 0 0 0 0 0 0 0
          0 0 0 0 0 0 0 0 0 0 0 0
          0 0 0 0 0 0 0 0 0 0 0 0
          0 0 0 0 0 0 0 0 0 0 0 0
          0 0 0 0 0 0 0 0 0 0 0 0
          0 0 0 0 0 0 0 0 0 0 0 0
          0 0 0 0 0 0 0 0 0 0 0 0
          0 0 0 0 0 0 0 0 0 0 0 0
          0 0 0 0 0 0 0 0 0 0 0 0
          0 0 0 0 0 0 0 0 0 0 0 0
          0 0 0 0 0 0 0 0 0 0 0 0
          0 0 0 0 0 0 0 0 0 0 0 0
          0 0 0 0 0 0 0 0 0 0 0 0
          0 0 0 0 0 0 0 0 0 0 0 0
          0 0 0 0 0 0 0 0 0 0 0 0
          0 0 0 0 0 0 0 0 0 0 0 0
          0 0 0 0 0 0 0 0 0 0 0 0
          0 0 0 0 0 0 0 0 0 0 0 0
          0 0 0 0 0 0 0 0 0 0 0 0
          0 0 0 0 0 0 0 0 0 0 0 0
          0 0 0 0 0 0 0 0 0 0 0 0
          0 0 0 0 0 0 0 0 0 0 0 0
          0 0 0 0 0 0 0 0 0 0 0 0
          0 0 0 0 0 0 0 0 0 0 0 0
          0 0 0 0 0 0 0 0 0 0 0 0
          0 0 0 0 0 0 0 0 0 0 0 0
          0 0 0 0 0 0 0 0 0 0 0 0
          0 0 0 0 0 0 0 0 0 0 0 0
          0 0 0 0 0 0 0 0 0 0 0 0
          0 0 0 0 0 0 0 0 0 0 0 0
          0 0 0 0 0 0 0 0 0 0 0 0
          0 0 0 0 0 0 0 0 0 0 0 0
          0 0 0 0 0 0 0 0 0 0 0 0
          0 0 0 0 0 0 0 0 0 0 0 0
          0 0 0 0 0 0 0 0 0 0 0 0
          0 0 0 0 0 0 0 0 0 0 0 0
          0 0 0 0 0 0 0 0 0 0 0 0
          0 0 0 0 0 0 0 0 0 0 0 0
          0 0 0 0 0 0 0 0 0 0 0 0
          0 0 0 0 0 0 0 0 0 0 0 0
          0 0 0 0 0 0 0 0 0 0 0 0
          0 0 0 0 0 0 0 0 0 0 0 0
          0 0 0 0 0 0 0 0 0 0 0 0
          0 0 0 0 0 0 0 0 0 0 0 0
          0 0 0 0 0 0 0 0 0 0 0 0
          0 0 0 0 0 0 0 0 0 0 0 0
          0 0 0 0 0 0 0 0 0 0 0 0
          0 0 0 0 0 0 0 0 0 0 0 0
          0 0 0 0 0 0 0 0 0 0 0 0
          0 0 0 0 0 0 0 0 0 0 0 0
          0 0 0 0 0 0 0 0 0 0 0 0
          0 0 0 0 0 0 0 0 0 0 0 0
          0 0 0 0 0 0 0 0 0 0 0 0
          0 0 0 0 0 0 0 0 0 0 0 0
          0 0 0 0 0 0 0 0 0 0 0 0
          0 0 0 0 0 0 0 0 0 0 0 0
          0 0 0 0 0 0 0 0 0 0 0 0
          0 0 0 0 0 0 0 0 0 0 0 0
          0 0 0 0 0 0 0 0 0 0 0 0
          0 0 0 0 0 0 0 0 0 0 0 0
          0 0 0 0 0 0 0 0 0 0 0 0
          0 0 0 0 0 0 0 0 0 0 0 0
          0 0 0 0 0 0 0 0 0 0 0 0
          0 0 0 0 0 0 0 0 0 0 0 0
          0 0 0 0 0 0 0 0 0 0 0 0
          0 0 0 0 0 0 0 0 0 0 0 0
        </DataArray>
      </PointData>
      <Points>
        <DataArray type="Float32" Name="Coordinates" NumberOfComponents="3" format="ascii">
          0 0 0 0 0.125 0 0 0.25 0 0 0.375 0
          0 0.5 0 0.625 0 0 0.625 0.125 0 0.625 0.25 0
          0.625 0.375 0 0.625 0.5 0 1.25 0 0 1.25 0.125 0
          1.25 0.25 0 1.25 0.375 0 1.25 0.5 0 1.875 0 0
          1.875 0.125 0 1.875 0.25 0 1.875 0.375 0 1.875 0.5 0
          2.5 0 0 2.5 0.125 0 2.5 0.25 0 2.5 0.375 0
          2.5 0.5 0 0 0.5 0 0 0.625 0 0 0.75 0
          0 0.875 0 0 1 0 0.625 0.5 0 0.625 0.625 0
          0.625 0.75 0 0.625 0.875 0 0.625 1 0 1.25 0.5 0
          1.25 0.625 0 1.25 0.75 0 1.25 0.875 0 1.25 1 0
          1.875 0.5 0 1.875 0.625 0 1.875 0.75 0 1.875 0.875 0
          1.875 1 0 2.5 0.5 0 2.5 0.625 0 2.5 0.75 0
          2.5 0.875 0 2.5 1 0 0 1 0 0 1.125 0
          0 1.25 0 0 1.375 0 0 1.5 0 0.625 1 0
          0.625 1.125 0 0.625 1.25 0 0.625 1.375 0 0.625 1.5 0
          1.25 1 0 1.25 1.125 0 1.25 1.25 0 1.25 1.375 0
          1.25 1.5 0 1.875 1 0 1.875 1.125 0 1.875 1.25 0
          1.875 1.375 0 1.875 1.5 0 2.5 1 0 2.5 1.125 0
          2.5 1.25 0 2.5 1.375 0 2.5 1.5 0 0 1.5 0
          0 1.625 0 0 1.75 0 0 1.875 0 0 2 0
          0.625 1.5 0 0.625 1.625 0 0.625 1.75 0 0.625 1.875 0
          0.625 2 0 1.25 1.5 0 1.25 1.625 0 1.25 1.75 0
          1.25 1.875 0 1.25 2 0 1.875 1.5 0 1.875 1.625 0
          1.875 1.75 0 1.875 1.875 0 1.875 2 0 2.5 1.5 0
          2.5 1.625 0 2.5 1.75 0 2.5 1.875 0 2.5 2 0
          2.5 0 0 2.5 0.125 0 2.5 0.25 0 2.5 0.375 0
          2.5 0.5 0 3.125 0 0 3.125 0.125 0 3.125 0.25 0
          3.125 0.375 0 3.125 0.5 0 3.75 0 0 3.75 0.125 0
          3.75 0.25 0 3.75 0.375 0 3.75 0.5 0 4.375 0 0
          4.375 0.125 0 4.375 0.25 0 4.375 0.375 0 4.375 0.5 0
          5 0 0 5 0.125 0 5 0.25 0 5 0.375 0
          5 0.5 0 2.5 0.5 0 2.5 0.625 0 2.5 0.75 0
          2.5 0.875 0 2.5 1 0 3.125 0.5 0 3.125 0.625 0
          3.125 0.75 0 3.125 0.875 0 3.125 1 0 3.75 0.5 0
          3.75 0.625 0 3.75 0.75 0 3.75 0.875 0 3.75 1 0
          4.375 0.5 0 4.375 0.625 0 4.375 0.75 0 4.375 0.875 0
          4.375 1 0 5 0.5 0 5 0.625 0 5 0.75 0
          5 0.875 0 5 1 0 2.5 1 0 2.5 1.125 0
          2.5 1.25 0 2.5 1.375 0 2.5 1.5 0 3.125 1 0
          3.125 1.125 0 3.125 1.25 0 3.125 1.375 0 3.125 1.5 0
          3.75 1 0 3.75 1.125 0 3.75 1.25 0 3.75 1.375 0
          3.75 1.5 0 4.375 1 0 4.375 1.125 0 4.375 1.25 0
          4.375 1.375 0 4.375 1.5 0 5 1 0 5 1.125 0
          5 1.25 0 5 1.375 0 5 1.5 0 2.5 1.5 0
          2.5 1.625 0 2.5 1.75 0 2.5 1.875 0 2.5 2 0
          3.125 1.5 0 3.125 1.625 0 3.125 1.75 0 3.125 1.875 0
          3.125 2 0 3.75 1.5 0 3.75 1.625 0 3.75 1.75 0
          3.75 1.875 0 3.75 2 0 4.375 1.5 0 4.375 1.625 0
          4.375 1.75 0 4.375 1.875 0 4.375 2 0 5 1.5 0
          5 1.625 0 5 1.75 0 5 1.875 0 5 2 0
          5 0 0 5 0.125 0 5 0.25 0 5 0.375 0
          5 0.5 0 5.625 0 0 5.625 0.125 0 5.625 0.25 0
          5.625 0.375 0 5.625 0.5 0 6.25 0 0 6.25 0.125 0
          6.25 0.25 0 6.25 0.375 0 6.25 0.5 0 6.875 0 0
          6.875 0.125 0 6.875 0.25 0 6.875 0.375 0 6.875 0.5 0
          7.5 0 0 7.5 0.125 0 7.5 0.25 0 7.5 0.375 0
          7.5 0.5 0 5 0.5 0 5 0.625 0 5 0.75 0
          5 0.875 0 5 1 0 5.625 0.5 0 5.625 0.625 0
          5.625 0.75 0 5.625 0.875 0 5.625 1 0 6.25 0.5 0
          6.25 0.625 0 6.25 0.75 0 6.25 0.875 0 6.25 1 0
          6.875 0.5 0 6.875 0.625 0 6.875 0.75 0 6.875 0.875 0
          6.875 1 0 7.5 0.5 0 7.5 0.625 0 7.5 0.75 0
          7.5 0.875 0 7.5 1 0 5 1 0 5 1.125 0
          5 1.25 0 5 1.375 0 5 1.5 0 5.625 1 0
          5.625 1.125 0 5.625 1.25 0 5.625 1.375 0 5.625 1.5 0
          6.25 1 0 6.25 1.125 0 6.25 1.25 0 6.25 1.375 0
          6.25 1.5 0 6.875 1 0 6.875 1.125 0 6.875 1.25 0
          6.875 1.375 0 6.875 1.5 0 7.5 1 0 7.5 1.125 0
          7.5 1.25 0 7.5 1.375 0 7.5 1.5 0 5 1.5 0
          5 1.625 0 5 1.75 0 5 1.875 0 5 2 0
          5.625 1.5 0 5.625 1.625 0 5.625 1.75 0 5.625 1.875 0
          5.625 2 0 6.25 1.5 0 6.25 1.625 0 6.25 1.75 0
          6.25 1.875 0 6.25 2 0 6.875 1.5 0 6.875 1.625 0
          6.875 1.75 0 6.875 1.875 0 6.875 2 0 7.5 1.5 0
          7.5 1.625 0 7.5 1.75 0 7.5 1.875 0 7.5 2 0
          7.5 0 0 7.5 0.125 0 7.5 0.25 0 7.5 0.375 0
          7.5 0.5 0 8.125 0 0 8.125 0.125 0 8.125 0.25 0
          8.125 0.375 0 8.125 0.5 0 8.75 0 0 8.75 0.125 0
          8.75 0.25 0 8.75 0.375 0 8.75 0.5 0 9.375 0 0
          9.375 0.125 0 9.375 0.25 0 9.375 0.375 0 9.375 0.5 0
          10 0 0 10 0.125 0 10 0.25 0 10 0.375 0
          10 0.5 0 7.5 0.5 0 7.5 0.625 0 7.5 0.75 0
          7.5 0.875 0 7.5 1 0 8.125 0.5 0 8.125 0.625 0
          8.125 0.75 0 8.125 0.875 0 8.125 1 0 8.75 0.5 0
          8.75 0.625 0 8.75 0.75 0 8.75 0.875 0 8.75 1 0
          9.375 0.5 0 9.375 0.625 0 9.375 0.75 0 9.375 0.875 0
          9.375 1 0 10 0.5 0 10 0.625 0 10 0.75 0
          10 0.875 0 10 1 0 7.5 1 0 7.5 1.125 0
          7.5 1.25 0 7.5 1.375 0 7.5 1.5 0 8.125 1 0
          8.125 1.125 0 8.125 1.25 0 8.125 1.375 0 8.125 1.5 0
          8.75 1 0 8.75 1.125 0 8.75 1.25 0 8.75 1.375 0
          8.75 1.5 0 9.375 1 0 9.375 1.125 0 9.375 1.25 0
          9.375 1.375 0 9.375 1.5 0 10 1 0 10 1.125 0
          10 1.25 0 10 1.375 0 10 1.5 0 7.5 1.5 0
          7.5 1.625 0 7.5 1.75 0 7.5 1.875 0 7.5 2 0
          8.125 1.5 0 8.125 1.625 0 8.125 1.75 0 8.125 1.875 0
          8.125 2 0 8.75 1.5 0 8.75 1.625 0 8.75 1.75 0
          8.75 1.875 0 8.75 2 0 9.375 1.5 0 9.375 1.625 0
          9.375 1.75 0 9.375 1.875 0 9.375 2 0 10 1.5 0
          10 1.625 0 10 1.75 0 10 1.875 0 10 2 0
        </DataArray>
      </Points>
      <Cells>
        <DataArray type="Int32" Name="connectivity" NumberOfComponents="1" format="ascii">
          0 1 6 5 1 2 7 6 2 3 8 7
          3 4 9 8 5 6 11 10 6 7 12 11
          7 8 13 12 8 9 14 13 10 11 16 15
          11 12 17 16 12 13 18 17 13 14 19 18
          15 16 21 20 16 17 22 21 17 18 23 22
          18 19 24 23 25 26 31 30 26 27 32 31
          27 28 33 32 28 29 34 33 30 31 36 35
          31 32 37 36 32 33 38 37 33 34 39 38
          35 36 41 40 36 37 42 41 37 38 43 42
          38 39 44 43 40 41 46 45 41 42 47 46
          42 43 48 47 43 44 49 48 50 51 56 55
          51 52 57 56 52 53 58 57 53 54 59 58
          55 56 61 60 56 57 62 61 57 58 63 62
          58 59 64 63 60 61 66 65 61 62 67 66
          62 63 68 67 63 64 69 68 65 66 71 70
          66 67 72 71 67 68 73 72 68 69 74 73
          75 76 81 80 76 77 82 81 77 78 83 82
          78 79 84 83 80 81 86 85 81 82 87 86
          82 83 88 87 83 84 89 88 85 86 91 90
          86 87 92 91 87 88 93 92 88 89 94 93
          90 91 96 95 91 92 97 96 92 93 98 97
          93 94 99 98 100 101 106 105 101 102 107 106
          102 103 108 107 103 104 109 108 105 106 111 110
          106 107 112 111 107 108 113 112 108 109 114 113
          110 111 116 115 111 112 117 116 112 113 118 117
          113 114 119 118 115 116 121 120 116 117 122 121
          117 118 123 122 118 119 124 123 125 126 131 130
          126 127 132 131 127 128 133 132 128 129 134 133
          130 131 136 135 131 132 137 136 132 133 138 137
          133 134 139 138 135 136 141 140 136 137 142 141
          137 138 143 142 138 139 144 143 140 141 146 145
          141 142 147 146 142 143 148 147 143 144 149 148
          150 151 156 155 151 152 157 156 152 153 158 157
          153 154 159 158 155 156 161 160 156 157 162 161
          157 158 163 162 158 159 164 163 160 161 166 165
          161 162 167 166 162 163 168 167 163 164 169 168
          165 166 171 170 166 167 172 171 167 168 173 172
          168 169 174 173 175 176 181 180 176 177 182 181
          177 178 183 182 178 179 184 183 180 181 186 185
          181 182 187 186 182 183 188 187 183 184 189 188
          185 186 191 190 186 187 192 191 187 188 193 192
          188 189 194 193 190 191 196 195 191 192 197 196
          192 193 198 197 193 194 199 198 200 201 206 205
          201 202 207 206 202 203 208 207 203 204 209 208
          205 206 211 210 206 207 212 211 207 208 213 212
          208 209 214 213 210 211 216 215 211 212 217 216
          212 213 218 217 213 214 219 218 215 216 221 220
          216 217 222 221 217 218 223 222 218 219 224 223
          225 226 231 230 226 227 232 231 227 228 233 232
          228 229 234 233 230 231 236 235 231 232 237 236
          232 233 238 237 233 234 239 238 235 236 241 240
          236 237 242 241 237 238 243 242 238 239 244 243
          240 241 246 245 241 242 247 246 242 243 248 247
          243 244 249 248 250 251 256 255 251 252 257 256
          252 253 258 257 253 254 259 258 255 256 261 260
          256 257 262 261 257 258 263 262 258 259 264 263
          260 261 266 265 261 262 267 266 262 263 268 267
          263 264 269 268 265 266 271 270 266 267 272 271
          267 268 273 272 268 269 274 273 275 276 281 280
          276 277 282 281 277 278 283 282 278 279 284 283
          280 281 286 285 281 282 287 286 282 283 288 287
          283 284 289 288 285 286 291 290 286 287 292 291
          287 288 293 292 288 289 294 293 290 291 296 295
          291 292 297 296 292 293 298 297 293 294 299 298
          300 301 306 305 301 302 307 306 302 303 308 307
          303 304 309 308 305 306 311 310 306 307 312 311
          307 308 313 312 308 309 314 313 310 311 316 315
          311 312 317 316 312 313 318 317 313 314 319 318
          315 316 321 320 316 317 322 321 317 318 323 322
          318 319 324 323 325 326 331 330 326 327 332 331
          327 328 333 332 328 329 334 333 330 331 336 335
          331 332 337 336 332 333 338 337 333 334 339 338
          335 336 341 340 336 337 342 341 337 338 343 342
          338 339 344 343 340 341 346 345 341 342 347 346
          342 343 348 347 343 344 349 348 350 351 356 355
          351 352 357 356 352 353 358 357 353 354 359 358
          355 356 361 360 356 357 362 361 357 358 363 362
          358 359 364 363 360 361 366 365 361 362 367 366
          362 363 368 367 363 364 369 368 365 366 371 370
          366 367 372 371 367 368 373 372 368 369 374 373
          375 376 381 380 376 377 382 381 377 378 383 382
          378 379 384 383 380 381 386 385 381 382 387 386
          382 383 388 387 383 384 389 388 385 386 391 390
          386 387 392 391 387 388 393 392 388 389 394 393
          390 391 396 395 391 392 397 396 392 393 398 397
          393 394 399 398
        </DataArray>
        <DataArray type="Int32" Name="offsets" NumberOfComponents="1" format="ascii">
          4 8 12 16 20 24 28 32 36 40 44 48
          52 56 60 64 68 72 76 80 84 88 92 96
          100 104 108 112 116 120 124 128 132 136 140 144
          148 152 156 160 164 168 172 176 180 184 188 192
          196 200 204 208 212 216 220 224 228 232 236 240
          244 248 252 256 260 264 268 272 276 280 284 288
          292 296 300 304 308 312 316 320 324 328 332 336
          340 344 348 352 356 360 364 368 372 376 380 384
          388 392 396 400 404 408 412 416 420 424 428 432
          436 440 444 448 452 456 460 464 468 472 476 480
          484 488 492 496 500 504 508 512 516 520 524 528
          532 536 540 544 548 552 556 560 564 568 572 576
          580 584 588 592 596 600 604 608 612 616 620 624
          628 632 636 640 644 648 652 656 660 664 668 672
          676 680 684 688 692 696 700 704 708 712 716 720
          724 728 732 736 740 744 748 752 756 760 764 768
          772 776 780 784 788 792 796 800 804 808 812 816
          820 824 828 832 836 840 844 848 852 856 860 864
          868 872 876 880 884 888 892 896 900 904 908 912
          916 920 924 928 932 936 940 944 948 952 956 960
          964 968 972 976 980 984 988 992 996 1000 1004 1008
          1012 1016 1020 1024
        </DataArray>
        <DataArray type="UInt8" Name="types" NumberOfComponents="1" format="ascii">
          9 9 9 9 9 9 9 9 9 9 9 9
          9 9 9 9 9 9 9 9 9 9 9 9
          9 9 9 9 9 9 9 9 9 9 9 9
          9 9 9 9 9 9 9 9 9 9 9 9
          9 9 9 9 9 9 9 9 9 9 9 9
          9 9 9 9 9 9 9 9 9 9 9 9
          9 9 9 9 9 9 9 9 9 9 9 9
          9 9 9 9 9 9 9 9 9 9 9 9
          9 9 9 9 9 9 9 9 9 9 9 9
          9 9 9 9 9 9 9 9 9 9 9 9
          9 9 9 9 9 9 9 9 9 9 9 9
          9 9 9 9 9 9 9 9 9 9 9 9
          9 9 9 9 9 9 9 9 9 9 9 9
          9 9 9 9 9 9 9 9 9 9 9 9
          9 9 9 9 9 9 9 9 9 9 9 9
          9 9 9 9 9 9 9 9 9 9 9 9
          9 9 9 9 9 9 9 9 9 9 9 9
          9 9 9 9 9 9 9 9 9 9 9 9
          9 9 9 9 9 9 9 9 9 9 9 9
          9 9 9 9 9 9 9 9 9 9 9 9
          9 9 9 9 9 9 9 9 9 9 9 9
          9 9 9 9
        </DataArray>
      </Cells>
    </Piece>
  </UnstructuredGrid>
</VTKFile>
